[{"name":"chem_nor","qualifiedName":"chem_nor","href":"chem_nor/","kind":9,"packageRank":0,"desc":""},{"name":"ChemNOR","qualifiedName":"chem_nor.ChemNOR","href":"chem_nor/ChemNOR-class.html","kind":3,"packageRank":0,"desc":"ChemNOR class is responsible for finding relevant chemical compounds\nbased on an application description.","enclosedBy":{"name":"chem_nor","kind":9,"href":"chem_nor/"}},{"name":"ChemNOR","qualifiedName":"chem_nor.ChemNOR.ChemNOR","href":"chem_nor/ChemNOR/ChemNOR.html","kind":2,"packageRank":0,"desc":"Constructor for ChemNOR, requires an API key for Google Generative AI.\nOptionally specify a Gemini model to use (defaults to gemini-2.5-flash).","enclosedBy":{"name":"ChemNOR","kind":3,"href":"chem_nor/ChemNOR-class.html"}},{"name":"availableModels","qualifiedName":"chem_nor.ChemNOR.availableModels","href":"chem_nor/ChemNOR/availableModels.html","kind":16,"overriddenDepth":0,"packageRank":0,"desc":"List of all available Gemini model names","enclosedBy":{"name":"ChemNOR","kind":3,"href":"chem_nor/ChemNOR-class.html"}},{"name":"chat","qualifiedName":"chem_nor.ChemNOR.chat","href":"chem_nor/ChemNOR/chat.html","kind":10,"overriddenDepth":0,"packageRank":0,"desc":"","enclosedBy":{"name":"ChemNOR","kind":3,"href":"chem_nor/ChemNOR-class.html"}},{"name":"chemist","qualifiedName":"chem_nor.ChemNOR.chemist","href":"chem_nor/ChemNOR/chemist.html","kind":10,"overriddenDepth":0,"packageRank":0,"desc":"","enclosedBy":{"name":"ChemNOR","kind":3,"href":"chem_nor/ChemNOR-class.html"}},{"name":"chempubBaseUrl","qualifiedName":"chem_nor.ChemNOR.chempubBaseUrl","href":"chem_nor/ChemNOR/chempubBaseUrl.html","kind":16,"overriddenDepth":0,"packageRank":0,"desc":"Base URL for PubChem API.","enclosedBy":{"name":"ChemNOR","kind":3,"href":"chem_nor/ChemNOR-class.html"}},{"name":"findListOfCompounds","qualifiedName":"chem_nor.ChemNOR.findListOfCompounds","href":"chem_nor/ChemNOR/findListOfCompounds.html","kind":10,"overriddenDepth":0,"packageRank":0,"desc":"Finds relevant chemical compounds for a given application description.","enclosedBy":{"name":"ChemNOR","kind":3,"href":"chem_nor/ChemNOR-class.html"}},{"name":"findListOfCompoundsJSN","qualifiedName":"chem_nor.ChemNOR.findListOfCompoundsJSN","href":"chem_nor/ChemNOR/findListOfCompoundsJSN.html","kind":10,"overriddenDepth":0,"packageRank":0,"desc":"","enclosedBy":{"name":"ChemNOR","kind":3,"href":"chem_nor/ChemNOR-class.html"}},{"name":"genAiApiKey","qualifiedName":"chem_nor.ChemNOR.genAiApiKey","href":"chem_nor/ChemNOR/genAiApiKey.html","kind":16,"overriddenDepth":0,"packageRank":0,"desc":"API key for Google Generative AI.","enclosedBy":{"name":"ChemNOR","kind":3,"href":"chem_nor/ChemNOR-class.html"}},{"name":"generateContent","qualifiedName":"chem_nor.ChemNOR.generateContent","href":"chem_nor/ChemNOR/generateContent.html","kind":10,"overriddenDepth":0,"packageRank":0,"desc":"Generates content using Google Gemini AI based on user input and system instruction.","enclosedBy":{"name":"ChemNOR","kind":3,"href":"chem_nor/ChemNOR-class.html"}},{"name":"getCompoundProperties","qualifiedName":"chem_nor.ChemNOR.getCompoundProperties","href":"chem_nor/ChemNOR/getCompoundProperties.html","kind":10,"overriddenDepth":0,"packageRank":0,"desc":"Fetches compound properties from PubChem using the given CID.","enclosedBy":{"name":"ChemNOR","kind":3,"href":"chem_nor/ChemNOR-class.html"}},{"name":"getRelevantSmiles","qualifiedName":"chem_nor.ChemNOR.getRelevantSmiles","href":"chem_nor/ChemNOR/getRelevantSmiles.html","kind":10,"overriddenDepth":0,"packageRank":0,"desc":"Uses Google Gemini AI to suggest relevant SMILES patterns\nbased on the given application description.","enclosedBy":{"name":"ChemNOR","kind":3,"href":"chem_nor/ChemNOR-class.html"}},{"name":"getSubstructureCids","qualifiedName":"chem_nor.ChemNOR.getSubstructureCids","href":"chem_nor/ChemNOR/getSubstructureCids.html","kind":10,"overriddenDepth":0,"packageRank":0,"desc":"Searches PubChem for compounds containing the given SMILES pattern.","enclosedBy":{"name":"ChemNOR","kind":3,"href":"chem_nor/ChemNOR-class.html"}},{"name":"maxResultsPerSmiles","qualifiedName":"chem_nor.ChemNOR.maxResultsPerSmiles","href":"chem_nor/ChemNOR/maxResultsPerSmiles.html","kind":16,"overriddenDepth":0,"packageRank":0,"desc":"Maximum number of results per SMILES pattern.","enclosedBy":{"name":"ChemNOR","kind":3,"href":"chem_nor/ChemNOR-class.html"}},{"name":"model","qualifiedName":"chem_nor.ChemNOR.model","href":"chem_nor/ChemNOR/model.html","kind":16,"overriddenDepth":0,"packageRank":0,"desc":"The Gemini model to use for AI-assisted tasks","enclosedBy":{"name":"ChemNOR","kind":3,"href":"chem_nor/ChemNOR-class.html"}},{"name":"ElementData","qualifiedName":"chem_nor.ElementData","href":"chem_nor/ElementData-class.html","kind":3,"packageRank":0,"desc":"Periodic table data and utilities.","enclosedBy":{"name":"chem_nor","kind":9,"href":"chem_nor/"}},{"name":"ElementData","qualifiedName":"chem_nor.ElementData.ElementData","href":"chem_nor/ElementData/ElementData.html","kind":2,"packageRank":0,"desc":"","enclosedBy":{"name":"ElementData","kind":3,"href":"chem_nor/ElementData-class.html"}},{"name":"atomicMass","qualifiedName":"chem_nor.ElementData.atomicMass","href":"chem_nor/ElementData/atomicMass.html","kind":16,"overriddenDepth":0,"packageRank":0,"desc":"Atomic mass in atomic mass units (u)","enclosedBy":{"name":"ElementData","kind":3,"href":"chem_nor/ElementData-class.html"}},{"name":"atomicNumber","qualifiedName":"chem_nor.ElementData.atomicNumber","href":"chem_nor/ElementData/atomicNumber.html","kind":16,"overriddenDepth":0,"packageRank":0,"desc":"Atomic number","enclosedBy":{"name":"ElementData","kind":3,"href":"chem_nor/ElementData-class.html"}},{"name":"boilingPoint","qualifiedName":"chem_nor.ElementData.boilingPoint","href":"chem_nor/ElementData/boilingPoint.html","kind":16,"overriddenDepth":0,"packageRank":0,"desc":"Boiling point in Kelvin","enclosedBy":{"name":"ElementData","kind":3,"href":"chem_nor/ElementData-class.html"}},{"name":"category","qualifiedName":"chem_nor.ElementData.category","href":"chem_nor/ElementData/category.html","kind":16,"overriddenDepth":0,"packageRank":0,"desc":"Element category (e.g., 'noble gas', 'alkali metal')","enclosedBy":{"name":"ElementData","kind":3,"href":"chem_nor/ElementData-class.html"}},{"name":"density","qualifiedName":"chem_nor.ElementData.density","href":"chem_nor/ElementData/density.html","kind":16,"overriddenDepth":0,"packageRank":0,"desc":"Density at room temperature (g/cm³)","enclosedBy":{"name":"ElementData","kind":3,"href":"chem_nor/ElementData-class.html"}},{"name":"electronConfiguration","qualifiedName":"chem_nor.ElementData.electronConfiguration","href":"chem_nor/ElementData/electronConfiguration.html","kind":16,"overriddenDepth":0,"packageRank":0,"desc":"Electron configuration","enclosedBy":{"name":"ElementData","kind":3,"href":"chem_nor/ElementData-class.html"}},{"name":"electronegativity","qualifiedName":"chem_nor.ElementData.electronegativity","href":"chem_nor/ElementData/electronegativity.html","kind":16,"overriddenDepth":0,"packageRank":0,"desc":"Electronegativity (Pauling scale)","enclosedBy":{"name":"ElementData","kind":3,"href":"chem_nor/ElementData-class.html"}},{"name":"group","qualifiedName":"chem_nor.ElementData.group","href":"chem_nor/ElementData/group.html","kind":16,"overriddenDepth":0,"packageRank":0,"desc":"Group number in the periodic table","enclosedBy":{"name":"ElementData","kind":3,"href":"chem_nor/ElementData-class.html"}},{"name":"meltingPoint","qualifiedName":"chem_nor.ElementData.meltingPoint","href":"chem_nor/ElementData/meltingPoint.html","kind":16,"overriddenDepth":0,"packageRank":0,"desc":"Melting point in Kelvin","enclosedBy":{"name":"ElementData","kind":3,"href":"chem_nor/ElementData-class.html"}},{"name":"name","qualifiedName":"chem_nor.ElementData.name","href":"chem_nor/ElementData/name.html","kind":16,"overriddenDepth":0,"packageRank":0,"desc":"Full element name (e.g., 'Hydrogen', 'Helium', 'Lithium')","enclosedBy":{"name":"ElementData","kind":3,"href":"chem_nor/ElementData-class.html"}},{"name":"period","qualifiedName":"chem_nor.ElementData.period","href":"chem_nor/ElementData/period.html","kind":16,"overriddenDepth":0,"packageRank":0,"desc":"Period number in the periodic table","enclosedBy":{"name":"ElementData","kind":3,"href":"chem_nor/ElementData-class.html"}},{"name":"standardState","qualifiedName":"chem_nor.ElementData.standardState","href":"chem_nor/ElementData/standardState.html","kind":16,"overriddenDepth":0,"packageRank":0,"desc":"Standard state at room temperature (solid, liquid, gas)","enclosedBy":{"name":"ElementData","kind":3,"href":"chem_nor/ElementData-class.html"}},{"name":"symbol","qualifiedName":"chem_nor.ElementData.symbol","href":"chem_nor/ElementData/symbol.html","kind":16,"overriddenDepth":0,"packageRank":0,"desc":"Chemical symbol (e.g., 'H', 'He', 'Li')","enclosedBy":{"name":"ElementData","kind":3,"href":"chem_nor/ElementData-class.html"}},{"name":"GeminiModel","qualifiedName":"chem_nor.GeminiModel","href":"chem_nor/GeminiModel.html","kind":5,"packageRank":0,"desc":"Available Gemini AI models","enclosedBy":{"name":"chem_nor","kind":9,"href":"chem_nor/"}},{"name":"allModelNames","qualifiedName":"chem_nor.GeminiModel.allModelNames","href":"chem_nor/GeminiModel/allModelNames.html","kind":16,"overriddenDepth":0,"packageRank":0,"desc":"Get all available model names as strings","enclosedBy":{"name":"GeminiModel","kind":5,"href":"chem_nor/GeminiModel.html"}},{"name":"apiName","qualifiedName":"chem_nor.GeminiModel.apiName","href":"chem_nor/GeminiModel/apiName.html","kind":16,"overriddenDepth":0,"packageRank":0,"desc":"","enclosedBy":{"name":"GeminiModel","kind":5,"href":"chem_nor/GeminiModel.html"}},{"name":"fromString","qualifiedName":"chem_nor.GeminiModel.fromString","href":"chem_nor/GeminiModel/fromString.html","kind":10,"overriddenDepth":0,"packageRank":0,"desc":"Convert a string to a GeminiModel","enclosedBy":{"name":"GeminiModel","kind":5,"href":"chem_nor/GeminiModel.html"}},{"name":"values","qualifiedName":"chem_nor.GeminiModel.values","href":"chem_nor/GeminiModel/values-constant.html","kind":1,"overriddenDepth":0,"packageRank":0,"desc":"A constant List of the values in this enum, in order of their declaration.","enclosedBy":{"name":"GeminiModel","kind":5,"href":"chem_nor/GeminiModel.html"}},{"name":"IupacNaming","qualifiedName":"chem_nor.IupacNaming","href":"chem_nor/IupacNaming-class.html","kind":3,"packageRank":0,"desc":"Utilities for IUPAC naming of chemical compounds.","enclosedBy":{"name":"chem_nor","kind":9,"href":"chem_nor/"}},{"name":"IupacNaming","qualifiedName":"chem_nor.IupacNaming.IupacNaming","href":"chem_nor/IupacNaming/IupacNaming.html","kind":2,"packageRank":0,"desc":"","enclosedBy":{"name":"IupacNaming","kind":3,"href":"chem_nor/IupacNaming-class.html"}},{"name":"batchGenerateIupacNames","qualifiedName":"chem_nor.IupacNaming.batchGenerateIupacNames","href":"chem_nor/IupacNaming/batchGenerateIupacNames.html","kind":10,"overriddenDepth":0,"packageRank":0,"desc":"Batch convert multiple SMILES strings to IUPAC names.","enclosedBy":{"name":"IupacNaming","kind":3,"href":"chem_nor/IupacNaming-class.html"}},{"name":"chempubBaseUrl","qualifiedName":"chem_nor.IupacNaming.chempubBaseUrl","href":"chem_nor/IupacNaming/chempubBaseUrl.html","kind":16,"overriddenDepth":0,"packageRank":0,"desc":"Base URL for PubChem API.","enclosedBy":{"name":"IupacNaming","kind":3,"href":"chem_nor/IupacNaming-class.html"}},{"name":"generateIupacName","qualifiedName":"chem_nor.IupacNaming.generateIupacName","href":"chem_nor/IupacNaming/generateIupacName.html","kind":10,"overriddenDepth":0,"packageRank":0,"desc":"Generates an IUPAC name from a SMILES notation using PubChem API.","enclosedBy":{"name":"IupacNaming","kind":3,"href":"chem_nor/IupacNaming-class.html"}},{"name":"MolecularWeight","qualifiedName":"chem_nor.MolecularWeight","href":"chem_nor/MolecularWeight-class.html","kind":3,"packageRank":0,"desc":"Provides utilities for calculating molecular weights of chemical compounds.","enclosedBy":{"name":"chem_nor","kind":9,"href":"chem_nor/"}},{"name":"MolecularWeight","qualifiedName":"chem_nor.MolecularWeight.MolecularWeight","href":"chem_nor/MolecularWeight/MolecularWeight.html","kind":2,"packageRank":0,"desc":"","enclosedBy":{"name":"MolecularWeight","kind":3,"href":"chem_nor/MolecularWeight-class.html"}},{"name":"calculate","qualifiedName":"chem_nor.MolecularWeight.calculate","href":"chem_nor/MolecularWeight/calculate.html","kind":10,"overriddenDepth":0,"packageRank":0,"desc":"Calculates molecular weight from a chemical formula.","enclosedBy":{"name":"MolecularWeight","kind":3,"href":"chem_nor/MolecularWeight-class.html"}},{"name":"calculateBatch","qualifiedName":"chem_nor.MolecularWeight.calculateBatch","href":"chem_nor/MolecularWeight/calculateBatch.html","kind":10,"overriddenDepth":0,"packageRank":0,"desc":"Calculates molecular weight of a list of formulas.\nReturns a map of formula to molecular weight.","enclosedBy":{"name":"MolecularWeight","kind":3,"href":"chem_nor/MolecularWeight-class.html"}},{"name":"getAtomicWeight","qualifiedName":"chem_nor.MolecularWeight.getAtomicWeight","href":"chem_nor/MolecularWeight/getAtomicWeight.html","kind":10,"overriddenDepth":0,"packageRank":0,"desc":"Get the atomic weight of a specific element.","enclosedBy":{"name":"MolecularWeight","kind":3,"href":"chem_nor/MolecularWeight-class.html"}},{"name":"MoleculeVisualizer","qualifiedName":"chem_nor.MoleculeVisualizer","href":"chem_nor/MoleculeVisualizer-class.html","kind":3,"packageRank":0,"desc":"Provides utilities for visualizing chemical structures from SMILES notation","enclosedBy":{"name":"chem_nor","kind":9,"href":"chem_nor/"}},{"name":"MoleculeVisualizer","qualifiedName":"chem_nor.MoleculeVisualizer.MoleculeVisualizer","href":"chem_nor/MoleculeVisualizer/MoleculeVisualizer.html","kind":2,"packageRank":0,"desc":"","enclosedBy":{"name":"MoleculeVisualizer","kind":3,"href":"chem_nor/MoleculeVisualizer-class.html"}},{"name":"defaultHeight","qualifiedName":"chem_nor.MoleculeVisualizer.defaultHeight","href":"chem_nor/MoleculeVisualizer/defaultHeight-constant.html","kind":1,"overriddenDepth":0,"packageRank":0,"desc":"","enclosedBy":{"name":"MoleculeVisualizer","kind":3,"href":"chem_nor/MoleculeVisualizer-class.html"}},{"name":"defaultWidth","qualifiedName":"chem_nor.MoleculeVisualizer.defaultWidth","href":"chem_nor/MoleculeVisualizer/defaultWidth-constant.html","kind":1,"overriddenDepth":0,"packageRank":0,"desc":"Default image size for visualizations","enclosedBy":{"name":"MoleculeVisualizer","kind":3,"href":"chem_nor/MoleculeVisualizer-class.html"}},{"name":"fetchMoleculeImage","qualifiedName":"chem_nor.MoleculeVisualizer.fetchMoleculeImage","href":"chem_nor/MoleculeVisualizer/fetchMoleculeImage.html","kind":10,"overriddenDepth":0,"packageRank":0,"desc":"Fetches a PNG image of the molecule from PubChem","enclosedBy":{"name":"MoleculeVisualizer","kind":3,"href":"chem_nor/MoleculeVisualizer-class.html"}},{"name":"fetchMoleculeSvg","qualifiedName":"chem_nor.MoleculeVisualizer.fetchMoleculeSvg","href":"chem_nor/MoleculeVisualizer/fetchMoleculeSvg.html","kind":10,"overriddenDepth":0,"packageRank":0,"desc":"Fetches an SVG representation of the molecule from PubChem","enclosedBy":{"name":"MoleculeVisualizer","kind":3,"href":"chem_nor/MoleculeVisualizer-class.html"}},{"name":"getMoleculeDataUrl","qualifiedName":"chem_nor.MoleculeVisualizer.getMoleculeDataUrl","href":"chem_nor/MoleculeVisualizer/getMoleculeDataUrl.html","kind":10,"overriddenDepth":0,"packageRank":0,"desc":"Returns the molecule structure as a data URL","enclosedBy":{"name":"MoleculeVisualizer","kind":3,"href":"chem_nor/MoleculeVisualizer-class.html"}},{"name":"getPubChemVisualizationUrl","qualifiedName":"chem_nor.MoleculeVisualizer.getPubChemVisualizationUrl","href":"chem_nor/MoleculeVisualizer/getPubChemVisualizationUrl.html","kind":10,"overriddenDepth":0,"packageRank":0,"desc":"Generates a URL that displays the molecule visualization in PubChem","enclosedBy":{"name":"MoleculeVisualizer","kind":3,"href":"chem_nor/MoleculeVisualizer-class.html"}},{"name":"pubchemVisualizationUrl","qualifiedName":"chem_nor.MoleculeVisualizer.pubchemVisualizationUrl","href":"chem_nor/MoleculeVisualizer/pubchemVisualizationUrl-constant.html","kind":1,"overriddenDepth":0,"packageRank":0,"desc":"Base URL for PubChem's visualization services","enclosedBy":{"name":"MoleculeVisualizer","kind":3,"href":"chem_nor/MoleculeVisualizer-class.html"}},{"name":"PeriodicTable","qualifiedName":"chem_nor.PeriodicTable","href":"chem_nor/PeriodicTable-class.html","kind":3,"packageRank":0,"desc":"Utility class for periodic table operations","enclosedBy":{"name":"chem_nor","kind":9,"href":"chem_nor/"}},{"name":"PeriodicTable","qualifiedName":"chem_nor.PeriodicTable.PeriodicTable","href":"chem_nor/PeriodicTable/PeriodicTable.html","kind":2,"packageRank":0,"desc":"","enclosedBy":{"name":"PeriodicTable","kind":3,"href":"chem_nor/PeriodicTable-class.html"}},{"name":"getByAtomicNumber","qualifiedName":"chem_nor.PeriodicTable.getByAtomicNumber","href":"chem_nor/PeriodicTable/getByAtomicNumber.html","kind":10,"overriddenDepth":0,"packageRank":0,"desc":"Gets an element by its atomic number","enclosedBy":{"name":"PeriodicTable","kind":3,"href":"chem_nor/PeriodicTable-class.html"}},{"name":"getByCategory","qualifiedName":"chem_nor.PeriodicTable.getByCategory","href":"chem_nor/PeriodicTable/getByCategory.html","kind":10,"overriddenDepth":0,"packageRank":0,"desc":"Gets all elements in a specific category","enclosedBy":{"name":"PeriodicTable","kind":3,"href":"chem_nor/PeriodicTable-class.html"}},{"name":"getByGroup","qualifiedName":"chem_nor.PeriodicTable.getByGroup","href":"chem_nor/PeriodicTable/getByGroup.html","kind":10,"overriddenDepth":0,"packageRank":0,"desc":"Gets all elements in a specific group","enclosedBy":{"name":"PeriodicTable","kind":3,"href":"chem_nor/PeriodicTable-class.html"}},{"name":"getByMassRange","qualifiedName":"chem_nor.PeriodicTable.getByMassRange","href":"chem_nor/PeriodicTable/getByMassRange.html","kind":10,"overriddenDepth":0,"packageRank":0,"desc":"Gets elements with atomic mass in the specified range","enclosedBy":{"name":"PeriodicTable","kind":3,"href":"chem_nor/PeriodicTable-class.html"}},{"name":"getByPeriod","qualifiedName":"chem_nor.PeriodicTable.getByPeriod","href":"chem_nor/PeriodicTable/getByPeriod.html","kind":10,"overriddenDepth":0,"packageRank":0,"desc":"Gets all elements in a specific period","enclosedBy":{"name":"PeriodicTable","kind":3,"href":"chem_nor/PeriodicTable-class.html"}},{"name":"getByStandardState","qualifiedName":"chem_nor.PeriodicTable.getByStandardState","href":"chem_nor/PeriodicTable/getByStandardState.html","kind":10,"overriddenDepth":0,"packageRank":0,"desc":"Gets elements with the specified standard state","enclosedBy":{"name":"PeriodicTable","kind":3,"href":"chem_nor/PeriodicTable-class.html"}},{"name":"getBySymbol","qualifiedName":"chem_nor.PeriodicTable.getBySymbol","href":"chem_nor/PeriodicTable/getBySymbol.html","kind":10,"overriddenDepth":0,"packageRank":0,"desc":"Gets an element by its symbol","enclosedBy":{"name":"PeriodicTable","kind":3,"href":"chem_nor/PeriodicTable-class.html"}},{"name":"ReactionBalancer","qualifiedName":"chem_nor.ReactionBalancer","href":"chem_nor/ReactionBalancer-class.html","kind":3,"packageRank":0,"desc":"A class for balancing chemical equations","enclosedBy":{"name":"chem_nor","kind":9,"href":"chem_nor/"}},{"name":"ReactionBalancer","qualifiedName":"chem_nor.ReactionBalancer.ReactionBalancer","href":"chem_nor/ReactionBalancer/ReactionBalancer.html","kind":2,"packageRank":0,"desc":"","enclosedBy":{"name":"ReactionBalancer","kind":3,"href":"chem_nor/ReactionBalancer-class.html"}},{"name":"balance","qualifiedName":"chem_nor.ReactionBalancer.balance","href":"chem_nor/ReactionBalancer/balance.html","kind":10,"overriddenDepth":0,"packageRank":0,"desc":"Balances a chemical equation.","enclosedBy":{"name":"ReactionBalancer","kind":3,"href":"chem_nor/ReactionBalancer-class.html"}},{"name":"SafetyData","qualifiedName":"chem_nor.SafetyData","href":"chem_nor/SafetyData-class.html","kind":3,"packageRank":0,"desc":"Provides access to chemical safety data, including hazard classifications,\nsafety precautions, and regulatory information.","enclosedBy":{"name":"chem_nor","kind":9,"href":"chem_nor/"}},{"name":"SafetyData","qualifiedName":"chem_nor.SafetyData.SafetyData","href":"chem_nor/SafetyData/SafetyData.html","kind":2,"packageRank":0,"desc":"","enclosedBy":{"name":"SafetyData","kind":3,"href":"chem_nor/SafetyData-class.html"}},{"name":"chempubBaseUrl","qualifiedName":"chem_nor.SafetyData.chempubBaseUrl","href":"chem_nor/SafetyData/chempubBaseUrl-constant.html","kind":1,"overriddenDepth":0,"packageRank":0,"desc":"Base URL for PubChem API.","enclosedBy":{"name":"SafetyData","kind":3,"href":"chem_nor/SafetyData-class.html"}},{"name":"getHazardStatementDescription","qualifiedName":"chem_nor.SafetyData.getHazardStatementDescription","href":"chem_nor/SafetyData/getHazardStatementDescription.html","kind":10,"overriddenDepth":0,"packageRank":0,"desc":"Returns a description for a specific hazard statement code","enclosedBy":{"name":"SafetyData","kind":3,"href":"chem_nor/SafetyData-class.html"}},{"name":"getPrecautionaryStatementDescription","qualifiedName":"chem_nor.SafetyData.getPrecautionaryStatementDescription","href":"chem_nor/SafetyData/getPrecautionaryStatementDescription.html","kind":10,"overriddenDepth":0,"packageRank":0,"desc":"Returns a description for a specific precautionary statement code","enclosedBy":{"name":"SafetyData","kind":3,"href":"chem_nor/SafetyData-class.html"}},{"name":"getSafetyData","qualifiedName":"chem_nor.SafetyData.getSafetyData","href":"chem_nor/SafetyData/getSafetyData.html","kind":10,"overriddenDepth":0,"packageRank":0,"desc":"Retrieves safety data for a chemical compound by name or identifier.","enclosedBy":{"name":"SafetyData","kind":3,"href":"chem_nor/SafetyData-class.html"}},{"name":"SmilesParser","qualifiedName":"chem_nor.SmilesParser","href":"chem_nor/SmilesParser-class.html","kind":3,"packageRank":0,"desc":"A parser for SMILES (Simplified Molecular Input Line Entry System) notation.","enclosedBy":{"name":"chem_nor","kind":9,"href":"chem_nor/"}},{"name":"SmilesParser","qualifiedName":"chem_nor.SmilesParser.SmilesParser","href":"chem_nor/SmilesParser/SmilesParser.html","kind":2,"packageRank":0,"desc":"","enclosedBy":{"name":"SmilesParser","kind":3,"href":"chem_nor/SmilesParser-class.html"}},{"name":"chempubBaseUrl","qualifiedName":"chem_nor.SmilesParser.chempubBaseUrl","href":"chem_nor/SmilesParser/chempubBaseUrl-constant.html","kind":1,"overriddenDepth":0,"packageRank":0,"desc":"Base URL for PubChem API","enclosedBy":{"name":"SmilesParser","kind":3,"href":"chem_nor/SmilesParser-class.html"}},{"name":"getDetailedInfo","qualifiedName":"chem_nor.SmilesParser.getDetailedInfo","href":"chem_nor/SmilesParser/getDetailedInfo.html","kind":10,"overriddenDepth":0,"packageRank":0,"desc":"Get detailed information about a molecule from its SMILES string using PubChem","enclosedBy":{"name":"SmilesParser","kind":3,"href":"chem_nor/SmilesParser-class.html"}},{"name":"isValid","qualifiedName":"chem_nor.SmilesParser.isValid","href":"chem_nor/SmilesParser/isValid.html","kind":10,"overriddenDepth":0,"packageRank":0,"desc":"Validate if a SMILES string is valid","enclosedBy":{"name":"SmilesParser","kind":3,"href":"chem_nor/SmilesParser-class.html"}},{"name":"parse","qualifiedName":"chem_nor.SmilesParser.parse","href":"chem_nor/SmilesParser/parse.html","kind":10,"overriddenDepth":0,"packageRank":0,"desc":"Parses a SMILES string and returns structural information about the molecule.","enclosedBy":{"name":"SmilesParser","kind":3,"href":"chem_nor/SmilesParser-class.html"}},{"name":"Spectroscopy","qualifiedName":"chem_nor.Spectroscopy","href":"chem_nor/Spectroscopy-class.html","kind":3,"packageRank":0,"desc":"Provides utilities for simulating and interpreting various spectroscopic data\nincluding NMR, IR, UV-Vis and Mass Spectrometry based on molecular structures.","enclosedBy":{"name":"chem_nor","kind":9,"href":"chem_nor/"}},{"name":"Spectroscopy","qualifiedName":"chem_nor.Spectroscopy.Spectroscopy","href":"chem_nor/Spectroscopy/Spectroscopy.html","kind":2,"packageRank":0,"desc":"","enclosedBy":{"name":"Spectroscopy","kind":3,"href":"chem_nor/Spectroscopy-class.html"}},{"name":"chempubBaseUrl","qualifiedName":"chem_nor.Spectroscopy.chempubBaseUrl","href":"chem_nor/Spectroscopy/chempubBaseUrl-constant.html","kind":1,"overriddenDepth":0,"packageRank":0,"desc":"Base URL for PubChem API","enclosedBy":{"name":"Spectroscopy","kind":3,"href":"chem_nor/Spectroscopy-class.html"}},{"name":"getExperimentalData","qualifiedName":"chem_nor.Spectroscopy.getExperimentalData","href":"chem_nor/Spectroscopy/getExperimentalData.html","kind":10,"overriddenDepth":0,"packageRank":0,"desc":"Attempts to fetch experimental spectroscopic data from PubChem if available","enclosedBy":{"name":"Spectroscopy","kind":3,"href":"chem_nor/Spectroscopy-class.html"}},{"name":"simulateCarbonNmr","qualifiedName":"chem_nor.Spectroscopy.simulateCarbonNmr","href":"chem_nor/Spectroscopy/simulateCarbonNmr.html","kind":10,"overriddenDepth":0,"packageRank":0,"desc":"Simulates a 13C NMR spectrum based on a SMILES structure","enclosedBy":{"name":"Spectroscopy","kind":3,"href":"chem_nor/Spectroscopy-class.html"}},{"name":"simulateIrSpectrum","qualifiedName":"chem_nor.Spectroscopy.simulateIrSpectrum","href":"chem_nor/Spectroscopy/simulateIrSpectrum.html","kind":10,"overriddenDepth":0,"packageRank":0,"desc":"Simulates an IR spectrum based on a SMILES structure","enclosedBy":{"name":"Spectroscopy","kind":3,"href":"chem_nor/Spectroscopy-class.html"}},{"name":"simulateMassSpectrum","qualifiedName":"chem_nor.Spectroscopy.simulateMassSpectrum","href":"chem_nor/Spectroscopy/simulateMassSpectrum.html","kind":10,"overriddenDepth":0,"packageRank":0,"desc":"Simulates a mass spectrum based on a SMILES structure","enclosedBy":{"name":"Spectroscopy","kind":3,"href":"chem_nor/Spectroscopy-class.html"}},{"name":"simulateProtonNmr","qualifiedName":"chem_nor.Spectroscopy.simulateProtonNmr","href":"chem_nor/Spectroscopy/simulateProtonNmr.html","kind":10,"overriddenDepth":0,"packageRank":0,"desc":"Simulates a 1H NMR spectrum based on a SMILES structure","enclosedBy":{"name":"Spectroscopy","kind":3,"href":"chem_nor/Spectroscopy-class.html"}},{"name":"calculateMolecularWeight","qualifiedName":"chem_nor.calculateMolecularWeight","href":"chem_nor/calculateMolecularWeight.html","kind":8,"packageRank":0,"desc":"Convenience function to calculate molecular weight from a chemical formula.","enclosedBy":{"name":"chem_nor","kind":9,"href":"chem_nor/"}},{"name":"convertMolesToGrams","qualifiedName":"chem_nor.convertMolesToGrams","href":"chem_nor/convertMolesToGrams.html","kind":8,"packageRank":0,"desc":"Unit conversion utilities.","enclosedBy":{"name":"chem_nor","kind":9,"href":"chem_nor/"}},{"name":"drawMolecule","qualifiedName":"chem_nor.drawMolecule","href":"chem_nor/drawMolecule.html","kind":8,"packageRank":0,"desc":"Draw a molecule visualization based on its SMILES string","enclosedBy":{"name":"chem_nor","kind":9,"href":"chem_nor/"}},{"name":"generateIupacName","qualifiedName":"chem_nor.generateIupacName","href":"chem_nor/generateIupacName.html","kind":8,"packageRank":0,"desc":"Convenience function to generate an IUPAC name from a SMILES notation.","enclosedBy":{"name":"chem_nor","kind":9,"href":"chem_nor/"}},{"name":"getMoleculeSvg","qualifiedName":"chem_nor.getMoleculeSvg","href":"chem_nor/getMoleculeSvg.html","kind":8,"packageRank":0,"desc":"Get an SVG representation of a molecule","enclosedBy":{"name":"chem_nor","kind":9,"href":"chem_nor/"}},{"name":"getSafetyData","qualifiedName":"chem_nor.getSafetyData","href":"chem_nor/getSafetyData.html","kind":8,"packageRank":0,"desc":"Convenience function to get safety data for a chemical.","enclosedBy":{"name":"chem_nor","kind":9,"href":"chem_nor/"}},{"name":"getSmilesDetails","qualifiedName":"chem_nor.getSmilesDetails","href":"chem_nor/getSmilesDetails.html","kind":8,"packageRank":0,"desc":"Gets detailed information about a molecule from its SMILES string.","enclosedBy":{"name":"chem_nor","kind":9,"href":"chem_nor/"}},{"name":"interpretNmr","qualifiedName":"chem_nor.interpretNmr","href":"chem_nor/interpretNmr.html","kind":8,"packageRank":0,"desc":"Interprets a 1H NMR spectrum from a SMILES string","enclosedBy":{"name":"chem_nor","kind":9,"href":"chem_nor/"}},{"name":"isSmilesValid","qualifiedName":"chem_nor.isSmilesValid","href":"chem_nor/isSmilesValid.html","kind":8,"packageRank":0,"desc":"Validates if a SMILES string is properly formatted.","enclosedBy":{"name":"chem_nor","kind":9,"href":"chem_nor/"}},{"name":"parseFormula","qualifiedName":"chem_nor.parseFormula","href":"chem_nor/parseFormula.html","kind":8,"packageRank":0,"desc":"Parses chemical formulas into a map of element symbols and their counts.\nExample: \"C6H12O6\" =&gt; {\"C\": 6, \"H\": 12, \"O\": 6}","enclosedBy":{"name":"chem_nor","kind":9,"href":"chem_nor/"}},{"name":"parseSmiles","qualifiedName":"chem_nor.parseSmiles","href":"chem_nor/parseSmiles.html","kind":8,"packageRank":0,"desc":"Parses SMILES strings and returns structural information.","enclosedBy":{"name":"chem_nor","kind":9,"href":"chem_nor/"}},{"name":"periodicTable","qualifiedName":"chem_nor.periodicTable","href":"chem_nor/periodicTable.html","kind":20,"packageRank":0,"desc":"Periodic table with data for all elements","enclosedBy":{"name":"chem_nor","kind":9,"href":"chem_nor/"}},{"name":"simulateCarbonNmr","qualifiedName":"chem_nor.simulateCarbonNmr","href":"chem_nor/simulateCarbonNmr.html","kind":8,"packageRank":0,"desc":"Simulates a carbon NMR spectrum from a SMILES string","enclosedBy":{"name":"chem_nor","kind":9,"href":"chem_nor/"}},{"name":"simulateIrSpectrum","qualifiedName":"chem_nor.simulateIrSpectrum","href":"chem_nor/simulateIrSpectrum.html","kind":8,"packageRank":0,"desc":"Simulates an IR spectrum from a SMILES string","enclosedBy":{"name":"chem_nor","kind":9,"href":"chem_nor/"}},{"name":"simulateMassSpectrum","qualifiedName":"chem_nor.simulateMassSpectrum","href":"chem_nor/simulateMassSpectrum.html","kind":8,"packageRank":0,"desc":"Simulates a mass spectrum from a SMILES string","enclosedBy":{"name":"chem_nor","kind":9,"href":"chem_nor/"}},{"name":"simulateProtonNmr","qualifiedName":"chem_nor.simulateProtonNmr","href":"chem_nor/simulateProtonNmr.html","kind":8,"packageRank":0,"desc":"Simulates a proton NMR spectrum from a SMILES string","enclosedBy":{"name":"chem_nor","kind":9,"href":"chem_nor/"}},{"name":"key","qualifiedName":"key","href":"key/","kind":9,"packageRank":0,"desc":""},{"name":"key","qualifiedName":"key.key","href":"key/key.html","kind":20,"packageRank":0,"desc":"","enclosedBy":{"name":"key","kind":9,"href":"key/"}}]
